<?xml version="1.0" encoding="UTF-8"?>

<!-- generated on 2025-05-10 23:33:25 by Eclipse SUMO GUI Version 1.23.1
<sumoConfiguration xmlns:xsi="http://www.w3.org/2001/XMLSchema-instance" xsi:noNamespaceSchemaLocation="http://sumo.dlr.de/xsd/sumoConfiguration.xsd">

    <input>
        <net-file value="myProject/osm.net.xml.gz"/>
        <route-files value="myProject/osm.passenger.trips.xml"/>
        <additional-files value="myProject/osm.poly.xml.gz,myProject/output.add.xml"/>
    </input>

    <output>
        <tripinfo-output value="myProject/tripinfos.xml"/>
        <statistic-output value="myProject/stats.xml"/>
    </output>

    <processing>
        <ignore-route-errors value="true"/>
        <tls.actuated.jam-threshold value="30"/>
    </processing>

    <routing>
        <device.rerouting.adaptation-steps value="18"/>
        <device.rerouting.adaptation-interval value="10"/>
    </routing>

    <report>
        <verbose value="true"/>
        <duration-log.statistics value="true"/>
        <no-step-log value="true"/>
    </report>

    <traci_server>
        <remote-port value="8813"/>
    </traci_server>

    <gui_only>
        <gui-settings-file value="myProject/osm.view.xml"/>
    </gui_only>

</sumoConfiguration>
-->

<tripinfos xmlns:xsi="http://www.w3.org/2001/XMLSchema-instance" xsi:noNamespaceSchemaLocation="http://sumo.dlr.de/xsd/tripinfo_file.xsd">
    <tripinfo id="veh6" depart="14.00" departLane="379871027#1_0" departPos="5.10" departSpeed="0.00" departDelay="0.34" arrival="100.00" arrivalLane="-108541212_0" arrivalPos="23.48" arrivalSpeed="14.27" duration="86.00" routeLength="1063.35" waitingTime="0.00" waitingCount="0" stopTime="0.00" timeLoss="20.98" rerouteNo="1" devices="tripinfo_veh6 routing_veh6" vType="veh_passenger" speedFactor="1.05" vaporized=""/>
    <tripinfo id="veh3" depart="7.00" departLane="-185201366#1_0" departPos="5.10" departSpeed="0.00" departDelay="0.17" arrival="110.00" arrivalLane="138961776#0_0" arrivalPos="166.76" arrivalSpeed="16.80" duration="103.00" routeLength="1312.38" waitingTime="0.00" waitingCount="0" stopTime="0.00" timeLoss="22.03" rerouteNo="1" devices="tripinfo_veh3 routing_veh3" vType="veh_passenger" speedFactor="1.08" vaporized=""/>
    <tripinfo id="veh23" depart="53.00" departLane="148712505#3_1" departPos="5.10" departSpeed="0.00" departDelay="0.64" arrival="141.00" arrivalLane="182810274#1_0" arrivalPos="20.22" arrivalSpeed="9.69" duration="88.00" routeLength="1053.56" waitingTime="0.00" waitingCount="0" stopTime="0.00" timeLoss="15.93" rerouteNo="1" devices="tripinfo_veh23 routing_veh23" vType="veh_passenger" speedFactor="0.89" vaporized=""/>
    <tripinfo id="veh8" depart="19.00" departLane="80877023#3_0" departPos="5.10" departSpeed="0.00" departDelay="0.79" arrival="155.00" arrivalLane="-638873675#0_0" arrivalPos="77.67" arrivalSpeed="12.90" duration="136.00" routeLength="1708.34" waitingTime="0.00" waitingCount="0" stopTime="0.00" timeLoss="16.72" rerouteNo="1" devices="tripinfo_veh8 routing_veh8" vType="veh_passenger" speedFactor="0.94" vaporized=""/>
    <tripinfo id="veh9" depart="21.00" departLane="-138961801#7_0" departPos="5.10" departSpeed="0.00" departDelay="0.51" arrival="155.00" arrivalLane="-139764419#7_0" arrivalPos="65.29" arrivalSpeed="13.51" duration="134.00" routeLength="1536.16" waitingTime="0.00" waitingCount="0" stopTime="0.00" timeLoss="18.62" rerouteNo="1" devices="tripinfo_veh9 routing_veh9" vType="veh_passenger" speedFactor="0.86" vaporized=""/>
    <tripinfo id="veh14" depart="32.00" departLane="52336401#18_0" departPos="5.10" departSpeed="0.00" departDelay="0.13" arrival="155.00" arrivalLane="172113650#3_0" arrivalPos="25.43" arrivalSpeed="10.09" duration="123.00" routeLength="1590.07" waitingTime="0.00" waitingCount="0" stopTime="0.00" timeLoss="19.10" rerouteNo="1" devices="tripinfo_veh14 routing_veh14" vType="veh_passenger" speedFactor="0.99" vaporized=""/>
    <tripinfo id="veh2" depart="5.00" departLane="1090458357_0" departPos="5.10" departSpeed="0.00" departDelay="0.45" arrival="156.00" arrivalLane="-1104195709#2_0" arrivalPos="44.33" arrivalSpeed="15.73" duration="151.00" routeLength="1912.04" waitingTime="0.00" waitingCount="0" stopTime="0.00" timeLoss="30.09" rerouteNo="1" devices="tripinfo_veh2 routing_veh2" vType="veh_passenger" speedFactor="1.01" vaporized=""/>
    <tripinfo id="veh37" depart="85.00" departLane="178705682#1_0" departPos="5.10" departSpeed="0.00" departDelay="0.77" arrival="163.00" arrivalLane="148712504#2_0" arrivalPos="26.83" arrivalSpeed="19.40" duration="78.00" routeLength="1199.10" waitingTime="0.00" waitingCount="0" stopTime="0.00" timeLoss="10.27" rerouteNo="1" devices="tripinfo_veh37 routing_veh37" vType="veh_passenger" speedFactor="1.18" vaporized=""/>
    <tripinfo id="veh38" depart="87.00" departLane="-303944211_0" departPos="5.10" departSpeed="0.00" departDelay="0.50" arrival="165.00" arrivalLane="172113859#11_0" arrivalPos="4.68" arrivalSpeed="17.35" duration="78.00" routeLength="1105.97" waitingTime="0.00" waitingCount="0" stopTime="0.00" timeLoss="13.46" rerouteNo="1" devices="tripinfo_veh38 routing_veh38" vType="veh_passenger" speedFactor="1.10" vaporized=""/>
    <tripinfo id="veh10" depart="23.00" departLane="52310603#5_1" departPos="5.10" departSpeed="0.00" departDelay="0.24" arrival="172.00" arrivalLane="172113772#0_0" arrivalPos="51.33" arrivalSpeed="15.12" duration="149.00" routeLength="2155.52" waitingTime="0.00" waitingCount="0" stopTime="0.00" timeLoss="22.44" rerouteNo="1" devices="tripinfo_veh10 routing_veh10" vType="veh_passenger" speedFactor="1.09" vaporized=""/>
    <tripinfo id="veh31" depart="71.00" departLane="-138961801#2_0" departPos="5.10" departSpeed="0.00" departDelay="0.43" arrival="175.00" arrivalLane="-125536091#1_0" arrivalPos="7.17" arrivalSpeed="9.64" duration="104.00" routeLength="1477.10" waitingTime="0.00" waitingCount="0" stopTime="0.00" timeLoss="23.92" rerouteNo="1" devices="tripinfo_veh31 routing_veh31" vType="veh_passenger" speedFactor="1.15" vaporized=""/>
    <tripinfo id="veh15" depart="35.00" departLane="240992810#2_0" departPos="5.10" departSpeed="0.00" departDelay="0.85" arrival="176.00" arrivalLane="-1230670187#4_0" arrivalPos="64.90" arrivalSpeed="14.58" duration="141.00" routeLength="1716.49" waitingTime="9.00" waitingCount="1" stopTime="0.00" timeLoss="27.43" rerouteNo="1" devices="tripinfo_veh15 routing_veh15" vType="veh_passenger" speedFactor="0.93" vaporized=""/>
    <tripinfo id="veh16" depart="37.00" departLane="-240992809#3_0" departPos="5.10" departSpeed="0.00" departDelay="0.58" arrival="178.00" arrivalLane="-52159197#3_0" arrivalPos="10.75" arrivalSpeed="14.08" duration="141.00" routeLength="1622.74" waitingTime="1.00" waitingCount="1" stopTime="0.00" timeLoss="21.20" rerouteNo="1" devices="tripinfo_veh16 routing_veh16" vType="veh_passenger" speedFactor="0.88" vaporized=""/>
    <tripinfo id="veh50" depart="114.00" departLane="-138961774#9_0" departPos="5.10" departSpeed="0.00" departDelay="0.18" arrival="183.00" arrivalLane="138961753#6_0" arrivalPos="97.60" arrivalSpeed="13.20" duration="69.00" routeLength="607.98" waitingTime="4.00" waitingCount="1" stopTime="0.00" timeLoss="17.45" rerouteNo="1" devices="tripinfo_veh50 routing_veh50" vType="veh_passenger" speedFactor="0.85" vaporized=""/>
    <tripinfo id="veh24" depart="55.00" departLane="52159197#5_0" departPos="5.10" departSpeed="0.00" departDelay="0.37" arrival="187.00" arrivalLane="303496561#0_0" arrivalPos="46.81" arrivalSpeed="12.78" duration="132.00" routeLength="1432.74" waitingTime="6.00" waitingCount="1" stopTime="0.00" timeLoss="24.15" rerouteNo="1" devices="tripinfo_veh24 routing_veh24" vType="veh_passenger" speedFactor="0.83" vaporized=""/>
    <tripinfo id="veh46" depart="105.00" departLane="-1090513361#1_0" departPos="5.10" departSpeed="0.00" departDelay="0.29" arrival="191.00" arrivalLane="646129239#0_0" arrivalPos="18.08" arrivalSpeed="10.69" duration="86.00" routeLength="1212.29" waitingTime="0.00" waitingCount="0" stopTime="0.00" timeLoss="9.55" rerouteNo="1" devices="tripinfo_veh46 routing_veh46" vType="veh_passenger" speedFactor="1.00" vaporized=""/>
    <tripinfo id="veh20" depart="46.00" departLane="172113859#14_0" departPos="5.10" departSpeed="0.00" departDelay="0.47" arrival="200.00" arrivalLane="172113777#3_0" arrivalPos="10.08" arrivalSpeed="13.16" duration="154.00" routeLength="1740.55" waitingTime="0.00" waitingCount="0" stopTime="0.00" timeLoss="29.47" rerouteNo="1" devices="tripinfo_veh20 routing_veh20" vType="veh_passenger" speedFactor="1.02" vaporized=""/>
    <tripinfo id="veh29" depart="67.00" departLane="-96739376#3_0" departPos="0.20" departSpeed="0.00" departDelay="0.98" arrival="205.00" arrivalLane="-265932530#11_0" arrivalPos="38.16" arrivalSpeed="14.95" duration="138.00" routeLength="1614.30" waitingTime="0.00" waitingCount="0" stopTime="0.00" timeLoss="19.16" rerouteNo="1" devices="tripinfo_veh29 routing_veh29" vType="veh_passenger" speedFactor="0.93" vaporized=""/>
    <tripinfo id="veh5" depart="12.00" departLane="172113859#17_0" departPos="5.10" departSpeed="0.00" departDelay="0.62" arrival="208.00" arrivalLane="148712505#2_1" arrivalPos="80.99" arrivalSpeed="22.57" duration="196.00" routeLength="2313.78" waitingTime="0.00" waitingCount="0" stopTime="0.00" timeLoss="22.09" rerouteNo="1" devices="tripinfo_veh5 routing_veh5" vType="veh_passenger" speedFactor="0.83" vaporized=""/>
    <tripinfo id="veh13" depart="30.00" departLane="51793804#2_0" departPos="5.10" departSpeed="0.00" departDelay="0.41" arrival="213.00" arrivalLane="172113783#2_0" arrivalPos="25.31" arrivalSpeed="18.36" duration="183.00" routeLength="2792.48" waitingTime="1.00" waitingCount="1" stopTime="0.00" timeLoss="27.70" rerouteNo="1" devices="tripinfo_veh13 routing_veh13" vType="veh_passenger" speedFactor="1.12" vaporized=""/>
    <tripinfo id="veh42" depart="96.00" departLane="172113767#0_0" departPos="5.10" departSpeed="0.00" departDelay="0.39" arrival="221.00" arrivalLane="-172113831#2_0" arrivalPos="55.89" arrivalSpeed="17.69" duration="125.00" routeLength="1217.74" waitingTime="33.00" waitingCount="1" stopTime="0.00" timeLoss="52.92" rerouteNo="1" devices="tripinfo_veh42 routing_veh42" vType="veh_passenger" speedFactor="1.09" vaporized=""/>
    <tripinfo id="veh1" depart="3.00" departLane="290784822_1" departPos="5.10" departSpeed="0.00" departDelay="0.72" arrival="224.00" arrivalLane="178667619#1_0" arrivalPos="548.90" arrivalSpeed="15.28" duration="221.00" routeLength="3164.69" waitingTime="19.00" waitingCount="1" stopTime="0.00" timeLoss="47.57" rerouteNo="1" devices="tripinfo_veh1 routing_veh1" vType="veh_passenger" speedFactor="0.94" vaporized=""/>
    <tripinfo id="veh47" depart="107.00" departLane="52372542#0_0" departPos="1.16" departSpeed="0.00" departDelay="0.01" arrival="226.00" arrivalLane="52159194#1_0" arrivalPos="48.37" arrivalSpeed="13.99" duration="119.00" routeLength="1278.54" waitingTime="17.00" waitingCount="1" stopTime="0.00" timeLoss="32.21" rerouteNo="1" devices="tripinfo_veh47 routing_veh47" vType="veh_passenger" speedFactor="0.90" vaporized=""/>
    <tripinfo id="veh26" depart="60.00" departLane="-52345561#3_0" departPos="5.10" departSpeed="0.00" departDelay="0.81" arrival="231.00" arrivalLane="-373074931#2_0" arrivalPos="76.61" arrivalSpeed="14.53" duration="171.00" routeLength="1936.06" waitingTime="9.00" waitingCount="1" stopTime="0.00" timeLoss="33.56" rerouteNo="1" devices="tripinfo_veh26 routing_veh26" vType="veh_passenger" speedFactor="0.92" vaporized=""/>
    <tripinfo id="veh75" depart="171.00" departLane="148712505#2_1" departPos="5.10" departSpeed="0.00" departDelay="0.27" arrival="239.00" arrivalLane="265942997#1_0" arrivalPos="1.16" arrivalSpeed="7.37" duration="68.00" routeLength="1169.70" waitingTime="0.00" waitingCount="0" stopTime="0.00" timeLoss="18.45" rerouteNo="1" devices="tripinfo_veh75 routing_veh75" vType="veh_passenger" speedFactor="0.98" vaporized=""/>
    <tripinfo id="veh59" depart="135.00" departLane="-180844271_0" departPos="5.10" departSpeed="0.00" departDelay="0.69" arrival="240.00" arrivalLane="-172113772#1_0" arrivalPos="48.22" arrivalSpeed="12.35" duration="105.00" routeLength="1388.07" waitingTime="0.00" waitingCount="0" stopTime="0.00" timeLoss="13.35" rerouteNo="1" devices="tripinfo_veh59 routing_veh59" vType="veh_passenger" speedFactor="0.97" vaporized=""/>
    <tripinfo id="veh18" depart="41.00" departLane="172113833_0" departPos="5.10" departSpeed="0.00" departDelay="0.02" arrival="243.00" arrivalLane="-93967943#3_0" arrivalPos="70.17" arrivalSpeed="12.69" duration="202.00" routeLength="2433.73" waitingTime="0.00" waitingCount="0" stopTime="0.00" timeLoss="27.22" rerouteNo="1" devices="tripinfo_veh18 routing_veh18" vType="veh_passenger" speedFactor="0.94" vaporized=""/>
    <tripinfo id="veh63" depart="144.00" departLane="96739322#1_0" departPos="5.10" departSpeed="0.00" departDelay="0.59" arrival="243.00" arrivalLane="-148714021#3_0" arrivalPos="21.58" arrivalSpeed="16.16" duration="99.00" routeLength="1213.88" waitingTime="0.00" waitingCount="0" stopTime="0.00" timeLoss="15.07" rerouteNo="1" devices="tripinfo_veh63 routing_veh63" vType="veh_passenger" speedFactor="0.99" vaporized=""/>
    <tripinfo id="veh65" depart="149.00" departLane="52336401#17_0" departPos="5.10" departSpeed="0.00" departDelay="1.03" arrival="246.00" arrivalLane="-330852944#1_0" arrivalPos="166.87" arrivalSpeed="14.30" duration="97.00" routeLength="1069.44" waitingTime="2.00" waitingCount="1" stopTime="0.00" timeLoss="19.94" rerouteNo="1" devices="tripinfo_veh65 routing_veh65" vType="veh_passenger" speedFactor="0.88" vaporized=""/>
    <tripinfo id="veh91" depart="208.00" departLane="52159194#14_0" departPos="5.10" departSpeed="0.00" departDelay="0.85" arrival="256.00" arrivalLane="240992810#1_0" arrivalPos="67.33" arrivalSpeed="13.80" duration="48.00" routeLength="575.23" waitingTime="0.00" waitingCount="0" stopTime="0.00" timeLoss="7.81" rerouteNo="1" devices="tripinfo_veh91 routing_veh91" vType="veh_passenger" speedFactor="0.89" vaporized=""/>
    <tripinfo id="veh40" depart="92.00" departLane="636657270_0" departPos="0.20" departSpeed="0.00" departDelay="0.94" arrival="258.00" arrivalLane="52345561#7_0" arrivalPos="7.53" arrivalSpeed="16.69" duration="166.00" routeLength="2342.10" waitingTime="0.00" waitingCount="0" stopTime="0.00" timeLoss="24.72" rerouteNo="1" devices="tripinfo_veh40 routing_veh40" vType="veh_passenger" speedFactor="1.03" vaporized=""/>
    <tripinfo id="veh17" depart="39.00" departLane="-138961774#10_0" departPos="5.10" departSpeed="0.00" departDelay="0.30" arrival="260.00" arrivalLane="-265964495#4_0" arrivalPos="36.86" arrivalSpeed="15.04" duration="221.00" routeLength="2516.19" waitingTime="6.00" waitingCount="1" stopTime="0.00" timeLoss="49.92" rerouteNo="1" devices="tripinfo_veh17 routing_veh17" vType="veh_passenger" speedFactor="0.94" vaporized=""/>
    <tripinfo id="veh21" depart="48.00" departLane="-172113839#3_0" departPos="5.10" departSpeed="0.00" departDelay="0.20" arrival="261.00" arrivalLane="266110066#1_0" arrivalPos="99.79" arrivalSpeed="16.01" duration="213.00" routeLength="2714.38" waitingTime="15.00" waitingCount="2" stopTime="0.00" timeLoss="47.42" rerouteNo="1" devices="tripinfo_veh21 routing_veh21" vType="veh_passenger" speedFactor="1.01" vaporized=""/>
    <tripinfo id="veh28" depart="64.00" departLane="170167984#9_0" departPos="5.10" departSpeed="0.00" departDelay="0.26" arrival="265.00" arrivalLane="603984469_0" arrivalPos="71.68" arrivalSpeed="2.58" duration="201.00" routeLength="2508.77" waitingTime="0.00" waitingCount="0" stopTime="0.00" timeLoss="40.51" rerouteNo="1" devices="tripinfo_veh28 routing_veh28" vType="veh_passenger" speedFactor="1.13" vaporized=""/>
    <tripinfo id="veh81" depart="185.00" departLane="-138961774#11_0" departPos="5.10" departSpeed="0.00" departDelay="0.61" arrival="267.00" arrivalLane="-173031742#2_0" arrivalPos="157.61" arrivalSpeed="16.54" duration="82.00" routeLength="1100.76" waitingTime="0.00" waitingCount="0" stopTime="0.00" timeLoss="15.23" rerouteNo="1" devices="tripinfo_veh81 routing_veh81" vType="veh_passenger" speedFactor="1.00" vaporized=""/>
    <tripinfo id="veh58" depart="133.00" departLane="52336401#11_0" departPos="5.10" departSpeed="0.00" departDelay="0.97" arrival="275.00" arrivalLane="-138961774#4_0" arrivalPos="0.88" arrivalSpeed="15.87" duration="142.00" routeLength="1805.60" waitingTime="9.00" waitingCount="1" stopTime="0.00" timeLoss="37.02" rerouteNo="1" devices="tripinfo_veh58 routing_veh58" vType="veh_passenger" speedFactor="1.02" vaporized=""/>
    <tripinfo id="veh71" depart="162.00" departLane="1364890337#0_0" departPos="5.10" departSpeed="0.00" departDelay="0.38" arrival="278.00" arrivalLane="-240992810#3_0" arrivalPos="127.67" arrivalSpeed="15.08" duration="116.00" routeLength="1654.92" waitingTime="0.00" waitingCount="0" stopTime="0.00" timeLoss="12.41" rerouteNo="1" devices="tripinfo_veh71 routing_veh71" vType="veh_passenger" speedFactor="0.97" vaporized=""/>
    <tripinfo id="veh43" depart="98.00" departLane="302679724-AddedOnRampEdge_2" departPos="5.10" departSpeed="0.00" departDelay="0.11" arrival="289.00" arrivalLane="148712504#5_1" arrivalPos="97.61" arrivalSpeed="16.89" duration="191.00" routeLength="2547.65" waitingTime="5.00" waitingCount="2" stopTime="0.00" timeLoss="39.99" rerouteNo="1" devices="tripinfo_veh43 routing_veh43" vType="veh_passenger" speedFactor="1.04" vaporized=""/>
    <tripinfo id="veh56" depart="128.00" departLane="-1382756442#5_0" departPos="5.10" departSpeed="0.00" departDelay="0.52" arrival="295.00" arrivalLane="172113839#1_0" arrivalPos="5.71" arrivalSpeed="9.13" duration="167.00" routeLength="2074.70" waitingTime="0.00" waitingCount="0" stopTime="0.00" timeLoss="21.38" rerouteNo="1" devices="tripinfo_veh56 routing_veh56" vType="veh_passenger" speedFactor="0.90" vaporized=""/>
    <tripinfo id="veh119" depart="273.00" departLane="37125603_3" departPos="5.10" departSpeed="0.00" departDelay="2.11" arrival="299.00" arrivalLane="-265942997#2_0" arrivalPos="126.74" arrivalSpeed="17.57" duration="26.00" routeLength="401.55" waitingTime="0.00" waitingCount="0" stopTime="0.00" timeLoss="7.47" rerouteNo="1" devices="tripinfo_veh119 routing_veh119" vType="veh_passenger" speedFactor="1.07" vaporized=""/>
    <tripinfo id="veh32" depart="73.00" departLane="360682942#8_0" departPos="5.10" departSpeed="0.00" departDelay="0.16" arrival="300.00" arrivalLane="1153506885#2_0" arrivalPos="87.70" arrivalSpeed="13.58" duration="227.00" routeLength="2696.50" waitingTime="0.00" waitingCount="0" stopTime="0.00" timeLoss="39.80" rerouteNo="1" devices="tripinfo_veh32 routing_veh32" vType="veh_passenger" speedFactor="1.01" vaporized=""/>
    <tripinfo id="veh53" depart="121.00" departLane="-303496561#2_0" departPos="5.10" departSpeed="0.00" departDelay="0.35" arrival="303.00" arrivalLane="52363139#4_0" arrivalPos="43.74" arrivalSpeed="14.77" duration="182.00" routeLength="2602.56" waitingTime="3.00" waitingCount="1" stopTime="0.00" timeLoss="45.16" rerouteNo="1" devices="tripinfo_veh53 routing_veh53" vType="veh_passenger" speedFactor="1.10" vaporized=""/>
    <tripinfo id="veh96" depart="219.00" departLane="-139764419#3_0" departPos="5.10" departSpeed="0.00" departDelay="0.47" arrival="303.00" arrivalLane="148715738_1" arrivalPos="239.47" arrivalSpeed="27.28" duration="84.00" routeLength="1413.20" waitingTime="0.00" waitingCount="0" stopTime="0.00" timeLoss="17.12" rerouteNo="1" devices="tripinfo_veh96 routing_veh96" vType="veh_passenger" speedFactor="1.01" vaporized=""/>
    <tripinfo id="veh35" depart="80.00" departLane="846682962#1_0" departPos="5.10" departSpeed="0.00" departDelay="0.33" arrival="305.00" arrivalLane="52336401#16_0" arrivalPos="8.82" arrivalSpeed="11.95" duration="225.00" routeLength="3095.42" waitingTime="7.00" waitingCount="2" stopTime="0.00" timeLoss="38.40" rerouteNo="1" devices="tripinfo_veh35 routing_veh35" vType="veh_passenger" speedFactor="1.02" vaporized=""/>
    <tripinfo id="veh34" depart="78.00" departLane="995053897#6_0" departPos="5.10" departSpeed="0.00" departDelay="0.60" arrival="307.00" arrivalLane="139764419#6_0" arrivalPos="43.73" arrivalSpeed="16.43" duration="229.00" routeLength="2895.83" waitingTime="0.00" waitingCount="0" stopTime="0.00" timeLoss="28.53" rerouteNo="1" devices="tripinfo_veh34 routing_veh34" vType="veh_passenger" speedFactor="0.99" vaporized=""/>
    <tripinfo id="veh66" depart="151.00" departLane="-265945289#3_0" departPos="5.10" departSpeed="0.00" departDelay="0.76" arrival="310.00" arrivalLane="639204808#6_0" arrivalPos="0.13" arrivalSpeed="14.42" duration="159.00" routeLength="1963.43" waitingTime="0.00" waitingCount="0" stopTime="0.00" timeLoss="22.65" rerouteNo="1" devices="tripinfo_veh66 routing_veh66" vType="veh_passenger" speedFactor="0.91" vaporized=""/>
    <tripinfo id="veh39" depart="89.00" departLane="138961753#7_1" departPos="5.10" departSpeed="0.00" departDelay="0.22" arrival="313.00" arrivalLane="-172951880#3_0" arrivalPos="32.12" arrivalSpeed="2.01" duration="224.00" routeLength="2124.77" waitingTime="0.00" waitingCount="0" stopTime="0.00" timeLoss="38.80" rerouteNo="1" devices="tripinfo_veh39 routing_veh39" vType="veh_passenger" speedFactor="0.90" vaporized=""/>
    <tripinfo id="veh103" depart="235.00" departLane="-138961765#0_0" departPos="5.10" departSpeed="0.00" departDelay="0.53" arrival="315.00" arrivalLane="52372542#4_0" arrivalPos="40.21" arrivalSpeed="15.85" duration="80.00" routeLength="983.47" waitingTime="0.00" waitingCount="0" stopTime="0.00" timeLoss="13.36" rerouteNo="1" devices="tripinfo_veh103 routing_veh103" vType="veh_passenger" speedFactor="0.95" vaporized=""/>
    <tripinfo id="veh0" depart="0.00" departLane="172113839#6_0" departPos="5.10" departSpeed="0.00" departDelay="0.00" arrival="317.00" arrivalLane="-1092459382#1_0" arrivalPos="46.55" arrivalSpeed="13.83" duration="317.00" routeLength="4335.94" waitingTime="0.00" waitingCount="0" stopTime="0.00" timeLoss="39.39" rerouteNo="1" devices="tripinfo_veh0 routing_veh0" vType="veh_passenger" speedFactor="1.06" vaporized=""/>
    <tripinfo id="veh55" depart="126.00" departLane="-173031741#1_0" departPos="5.10" departSpeed="0.00" departDelay="0.80" arrival="317.00" arrivalLane="-52372542#9_0" arrivalPos="47.34" arrivalSpeed="16.20" duration="191.00" routeLength="2513.77" waitingTime="0.00" waitingCount="0" stopTime="0.00" timeLoss="28.35" rerouteNo="1" devices="tripinfo_veh55 routing_veh55" vType="veh_passenger" speedFactor="1.00" vaporized=""/>
    <tripinfo id="veh54" depart="123.00" departLane="139195478#3_0" departPos="5.10" departSpeed="0.00" departDelay="0.07" arrival="329.00" arrivalLane="266110066#3_0" arrivalPos="59.72" arrivalSpeed="16.28" duration="206.00" routeLength="3197.72" waitingTime="0.00" waitingCount="0" stopTime="0.00" timeLoss="20.15" rerouteNo="1" devices="tripinfo_veh54 routing_veh54" vType="veh_passenger" speedFactor="1.00" vaporized=""/>
    <tripinfo id="veh7" depart="16.00" departLane="378371192-AddedOnRampEdge_2" departPos="5.10" departSpeed="0.00" departDelay="0.07" arrival="332.00" arrivalLane="240992809#1_0" arrivalPos="30.74" arrivalSpeed="12.08" duration="316.00" routeLength="4712.17" waitingTime="16.00" waitingCount="2" stopTime="0.00" timeLoss="53.47" rerouteNo="1" devices="tripinfo_veh7 routing_veh7" vType="veh_passenger" speedFactor="0.89" vaporized=""/>
    <tripinfo id="veh57" depart="130.00" departLane="-240992809#6_0" departPos="5.10" departSpeed="0.00" departDelay="0.25" arrival="333.00" arrivalLane="61238304#2_0" arrivalPos="60.30" arrivalSpeed="15.59" duration="203.00" routeLength="2766.73" waitingTime="0.00" waitingCount="0" stopTime="0.00" timeLoss="39.49" rerouteNo="1" devices="tripinfo_veh57 routing_veh57" vType="veh_passenger" speedFactor="1.14" vaporized=""/>
    <tripinfo id="veh84" depart="192.00" departLane="108541223#5_0" departPos="5.10" departSpeed="0.00" departDelay="0.78" arrival="336.00" arrivalLane="172113757#1_0" arrivalPos="38.72" arrivalSpeed="17.74" duration="144.00" routeLength="2144.12" waitingTime="0.00" waitingCount="0" stopTime="0.00" timeLoss="25.05" rerouteNo="1" devices="tripinfo_veh84 routing_veh84" vType="veh_passenger" speedFactor="1.15" vaporized=""/>
    <tripinfo id="veh60" depart="137.00" departLane="721560630_2" departPos="5.10" departSpeed="33.08" departDelay="0.42" arrival="337.00" arrivalLane="170167984#4_0" arrivalPos="191.32" arrivalSpeed="17.02" duration="200.00" routeLength="3569.00" waitingTime="17.00" waitingCount="1" stopTime="0.00" timeLoss="45.77" rerouteNo="1" devices="tripinfo_veh60 routing_veh60" vType="veh_passenger" speedFactor="1.08" vaporized=""/>
    <tripinfo id="veh70" depart="160.00" departLane="52310603#6_1" departPos="5.10" departSpeed="0.00" departDelay="0.65" arrival="341.00" arrivalLane="-172113859#14_0" arrivalPos="130.05" arrivalSpeed="16.41" duration="181.00" routeLength="2419.81" waitingTime="0.00" waitingCount="0" stopTime="0.00" timeLoss="27.67" rerouteNo="1" devices="tripinfo_veh70 routing_veh70" vType="veh_passenger" speedFactor="1.02" vaporized=""/>
    <tripinfo id="veh99" depart="226.00" departLane="52310603#4_0" departPos="5.10" departSpeed="0.00" departDelay="0.64" arrival="341.00" arrivalLane="-139195478#2_0" arrivalPos="135.75" arrivalSpeed="17.72" duration="115.00" routeLength="2157.63" waitingTime="0.00" waitingCount="0" stopTime="0.00" timeLoss="18.85" rerouteNo="1" devices="tripinfo_veh99 routing_veh99" vType="veh_passenger" speedFactor="1.10" vaporized=""/>
    <tripinfo id="veh89" depart="203.00" departLane="-1382756442#9_0" departPos="5.10" departSpeed="0.00" departDelay="0.40" arrival="342.00" arrivalLane="-240992810#1_0" arrivalPos="67.29" arrivalSpeed="16.57" duration="139.00" routeLength="2023.70" waitingTime="0.00" waitingCount="0" stopTime="0.00" timeLoss="16.09" rerouteNo="1" devices="tripinfo_veh89 routing_veh89" vType="veh_passenger" speedFactor="1.02" vaporized=""/>
    <tripinfo id="veh126" depart="287.00" departLane="172113766#1_0" departPos="5.10" departSpeed="0.00" departDelay="0.17" arrival="343.00" arrivalLane="138961801#1_0" arrivalPos="74.03" arrivalSpeed="16.11" duration="56.00" routeLength="760.99" waitingTime="0.00" waitingCount="0" stopTime="0.00" timeLoss="9.66" rerouteNo="1" devices="tripinfo_veh126 routing_veh126" vType="veh_passenger" speedFactor="1.03" vaporized=""/>
    <tripinfo id="veh106" depart="242.00" departLane="-172113777#3_0" departPos="5.10" departSpeed="13.63" departDelay="0.70" arrival="345.00" arrivalLane="-172113767#10_0" arrivalPos="11.43" arrivalSpeed="9.99" duration="103.00" routeLength="1378.15" waitingTime="0.00" waitingCount="0" stopTime="0.00" timeLoss="15.47" rerouteNo="1" devices="tripinfo_veh106 routing_veh106" vType="veh_passenger" speedFactor="1.01" vaporized=""/>
    <tripinfo id="veh128" depart="292.00" departLane="139195478#2_0" departPos="5.10" departSpeed="0.00" departDelay="0.62" arrival="346.00" arrivalLane="265942997#3_0" arrivalPos="76.81" arrivalSpeed="18.43" duration="54.00" routeLength="896.24" waitingTime="0.00" waitingCount="0" stopTime="0.00" timeLoss="5.63" rerouteNo="1" devices="tripinfo_veh128 routing_veh128" vType="veh_passenger" speedFactor="1.12" vaporized=""/>
    <tripinfo id="veh68" depart="155.00" departLane="148712504#5_1" departPos="5.10" departSpeed="0.00" departDelay="0.21" arrival="349.00" arrivalLane="-127965587#0_0" arrivalPos="57.07" arrivalSpeed="13.84" duration="194.00" routeLength="2584.23" waitingTime="2.00" waitingCount="1" stopTime="0.00" timeLoss="28.72" rerouteNo="1" devices="tripinfo_veh68 routing_veh68" vType="veh_passenger" speedFactor="1.04" vaporized=""/>
    <tripinfo id="veh25" depart="57.00" departLane="-240992809#6_0" departPos="5.10" departSpeed="0.00" departDelay="0.09" arrival="351.00" arrivalLane="-1153506884#0_0" arrivalPos="555.44" arrivalSpeed="11.46" duration="294.00" routeLength="3306.53" waitingTime="0.00" waitingCount="0" stopTime="0.00" timeLoss="35.22" rerouteNo="1" devices="tripinfo_veh25 routing_veh25" vType="veh_passenger" speedFactor="0.87" vaporized=""/>
    <tripinfo id="veh80" depart="183.00" departLane="138961756#0_0" departPos="5.10" departSpeed="0.00" departDelay="0.89" arrival="351.00" arrivalLane="52310604#4_0" arrivalPos="12.45" arrivalSpeed="16.96" duration="168.00" routeLength="2504.06" waitingTime="0.00" waitingCount="0" stopTime="0.00" timeLoss="15.22" rerouteNo="1" devices="tripinfo_veh80 routing_veh80" vType="veh_passenger" speedFactor="1.03" vaporized=""/>
    <tripinfo id="veh30" depart="69.00" departLane="995053898#2_0" departPos="5.10" departSpeed="0.00" departDelay="0.71" arrival="352.00" arrivalLane="138961791#0_0" arrivalPos="28.60" arrivalSpeed="13.53" duration="283.00" routeLength="3264.36" waitingTime="23.00" waitingCount="4" stopTime="0.00" timeLoss="93.35" rerouteNo="1" devices="tripinfo_veh30 routing_veh30" vType="veh_passenger" speedFactor="1.18" vaporized=""/>
    <tripinfo id="veh48" depart="110.00" departLane="-51819365_0" departPos="5.10" departSpeed="12.18" departDelay="0.73" arrival="354.00" arrivalLane="-1382756442#3_0" arrivalPos="41.76" arrivalSpeed="14.22" duration="244.00" routeLength="3038.58" waitingTime="0.00" waitingCount="0" stopTime="0.00" timeLoss="23.55" rerouteNo="1" devices="tripinfo_veh48 routing_veh48" vType="veh_passenger" speedFactor="0.88" vaporized=""/>
    <tripinfo id="veh76" depart="174.00" departLane="-172113781#8_0" departPos="5.10" departSpeed="0.00" departDelay="0.99" arrival="356.00" arrivalLane="-52363139#0_0" arrivalPos="46.42" arrivalSpeed="13.40" duration="182.00" routeLength="2560.36" waitingTime="0.00" waitingCount="0" stopTime="0.00" timeLoss="39.64" rerouteNo="1" devices="tripinfo_veh76 routing_veh76" vType="veh_passenger" speedFactor="1.03" vaporized=""/>